# vtk DataFile Version 1.0
Texture map for thresholding data (use boolean textures for 2D map)
ASCII

DATASET STRUCTURED_POINTS
DIMENSIONS 67 27 11
SPACING 1.0 1.0 1.0
ORIGIN -3.0 -3.0 -3.0

POINT_DATA 19899
SCALARS distance float 1
LOOKUP_TABLE default
-5.178686
-4.672644
-4.3405623
-4.2245955
-4.2248025
-4.2246842
-4.2247305
-4.2250967
-4.2249117
-4.225043
-4.2252817
-4.225396
-4.225624
-4.2255683
-4.225016
-4.224888
-4.224753
-4.224679
-4.2248726
-4.224932
-4.2250423
-4.225004
-4.224764
-4.224768
-4.2253337
-4.22531
-4.2250705
-4.2251635
-4.2253423
-4.2253666
-4.2251263
-4.225083
-4.2247586
-4.2248034
-4.2244864
-4.224644
-4.224919
-4.224669
-4.2245307
-4.2250037
-4.224969
-4.224849
-4.2254915
-4.225587
-4.2252274
-4.2251782
-4.225417
-4.2252603
-4.225338
-4.225679
-4.224983
-4.2251096
-4.2256174
-4.2247357
-4.224826
-4.2253785
-4.2248235
-4.2251606
-4.2248917
-4.225138
-4.2251673
-4.2252893
-4.224999
-4.2250357
-4.3411827
-4.672677
-6.076893
-4.672853
-4.1048393
-3.7239199
-3.5874667
-3.5872343
-3.587239
-3.5874927
-3.5874662
-3.5871305
-3.587315
-3.5871847
-3.5877295
-3.5866544
-3.586573
-3.5872233
-3.587065
-3.587298
-3.5874786
-3.5874984
-3.5876973
-3.5872421
-3.587428
-3.5877147
-3.5875618
-3.5872922
-3.5872545
-3.5872457
-3.5869975
-3.5869296
-3.58706
-3.587401
-3.587322
-3.5873415
-3.5872867
-3.5876548
-3.5871365
-3.5870836
-3.5873973
-3.5872846
-3.5869865
-3.5873144
-3.5880094
-3.5879064
-3.587896
-3.5877435
-3.587532
-3.5874867
-3.58793
-3.5880492
-3.5878074
-3.5879781
-3.58791
-3.5878778
-3.5876734
-3.5882397
-3.5878098
-3.5874875
-3.5883365
-3.588009
-3.588137
-3.588207
-3.5880115
-3.587841
-3.5878315
-3.7237673
-4.105246
-6.076077
-4.341281
-3.7231853
-3.2985876
-3.1437674
-3.1447968
-3.145038
-3.1448479
-3.1453798
-3.1448646
-3.1447241
-3.1446984
-3.1447911
-3.1443067
-3.1436381
-3.1445427
-3.1443493
-3.1437647
-3.144547
-3.1446774
-3.144496
-3.144917
-3.1443458
-3.1442618
-3.1447706
-3.1446145
-3.1446655
-3.144676
-3.1445627
-3.144453
-3.1442473
-3.144286
-3.1442618
-3.144318
-3.1437397
-3.1437325
-3.1439433
-3.1437054
-3.1435723
-3.1439037
-3.1436849
-3.1437979
-3.1439004
-3.1440992
-3.1442325
-3.143929
-3.143557
-3.1438894
-3.14411
-3.1443381
-3.1442292
-3.1441789
-3.1444314
-3.1443036
-3.144252
-3.1444921
-3.1443882
-3.1444614
-3.144832
-3.1444168
-3.1447759
-3.1447291
-3.144746
-3.144624
-3.1445525
-3.2986348
-3.7237098
-6.076204
-4.2250085
-3.5880089
-3.1435413
-2.9825864
-2.9814641
-2.982638
-2.9830148
-2.9830348
-2.9826021
-2.9815366
-2.9831936
-2.9826424
-2.9819741
-2.9820733
-2.9825957
-2.9821422
-2.981975
-2.9823487
-2.9830306
-2.9825287
-2.9824226
-2.9825096
-2.9827871
-2.9826653
-2.9827664
-2.982768
-2.9821627
-2.9822588
-2.982539
-2.9827418
-2.9823806
-2.982643
-2.9823847
-2.9825606
-2.9824028
-2.9825299
-2.9824197
-2.9824193
-2.982274
-2.982658
-2.9825284
-2.982641
-2.9834292
-2.983222
-2.9826949
-2.982813
-2.9834895
-2.9834502
-2.9827435
-2.9837403
-2.9830453
-2.9826603
-2.9837506
-2.9827428
-2.9832113
-2.983624
-2.9826722
-2.9830582
-2.9833415
-2.9832253
-2.9834757
-2.9834473
-2.982331
-2.9827752
-3.144727
-3.587164
-6.0763364
-4.2244625
-3.586704
-3.1435497
-2.9816062
-2.9817348
-2.982509
-2.982376
-2.983216
-2.9819667
-2.9816573
-2.981785
-2.9830062
-2.9816146
-2.9819372
-2.9828253
-2.981803
-2.982104
-2.9821835
-2.9821823
-2.982919
-2.981813
-2.9819684
-2.9823267
-2.9824765
-2.9824708
-2.982104
-2.9824371
-2.9822829
-2.9822445
-2.9821472
-2.9820826
-2.9816926
-2.981999
-2.9817483
-2.9814734
-2.9815087
-2.9812195
-2.9813318
-2.9814043
-2.9812348
-2.9814882
-2.9818785
-2.981754
-2.9819992
-2.9816327
-2.9814894
-2.9819212
-2.9822662
-2.98244
-2.9820747
-2.9819906
-2.9820764
-2.9827309
-2.9817393
-2.9824162
-2.9825199
-2.981434
-2.9821682
-2.9822905
-2.9818301
-2.9828649
-2.982276
-2.982163
-2.982025
-3.1439383
-3.5874097
-6.076092
-4.224621
-3.5875123
-3.1441152
-2.9817662
-2.9822338
-2.9826622
-2.9826193
-2.9822974
-2.981661
-2.9812958
-2.9829452
-2.9818447
-2.9814246
-2.9814253
-2.9821856
-2.9825728
-2.9813068
-2.9823687
-2.9829416
-2.9820843
-2.9822726
-2.9823918
-2.9822369
-2.9824624
-2.9826813
-2.982293
-2.9819112
-2.9817374
-2.9820082
-2.981562
-2.9818528
-2.9817312
-2.9817047
-2.9822876
-2.9819274
-2.982064
-2.98224
-2.9819815
-2.9822233
-2.9822488
-2.9824543
-2.9827006
-2.9827948
-2.9827783
-2.9831975
-2.9891846
-2.9990606
-2.9961984
-2.9946663
-2.9950774
-2.9918957
-2.9910188
-2.9907584
-2.988587
-2.9876752
-2.9871016
-2.985049
-2.9839494
-2.982738
-2.9842808
-2.9825516
-2.9835737
-2.9825356
-2.982614
-3.144364
-3.5875642
-6.076307
-4.2254863
-3.5882802
-3.1445425
-2.9832575
-3.056223
-3.067577
-3.0676544
-3.0580196
-2.9820368
-2.9815872
-2.9820745
-2.9819112
-2.9818265
-2.9823377
-2.9833465
-2.9814847
-2.9826922
-2.9830914
-2.983245
-2.983579
-2.9828196
-2.9822612
-2.9831936
-2.9829566
-2.9828095
-2.9826725
-2.9822345
-2.9825232
-2.9820652
-2.9825609
-2.9822164
-2.982074
-2.9818091
-3.010349
-3.15617
-3.156178
-3.1562052
-3.1560693
-3.1560318
-3.1566956
-3.1562004
-3.1564054
-3.1569366
-3.1570475
-3.1649249
-3.2112384
-3.2551033
-3.2447596
-3.238047
-3.239391
-3.2287085
-3.2199898
-3.2191553
-3.2095294
-3.2021685
-3.1980076
-3.187049
-3.168664
-3.0446043
-2.9818344
-2.9835982
-2.9827726
-2.98288
-2.9828494
-3.1446567
-3.587822
-6.075994
-4.3501096
-3.7339425
-3.311415
-3.1567373
-3.3109627
-3.44067
-3.4404812
-3.1881196
-3.0221152
-2.9837232
-2.9836628
-2.983633
-2.9813058
-2.9823546
-2.9819946
-3.0165842
-3.1277578
-3.1601794
-3.160215
-3.1598222
-3.1584952
-3.1588688
-3.1584349
-3.1300783
-3.0258913
-2.9827588
-2.9829903
-2.9822786
-2.9830735
-2.9821172
-2.9829473
-2.9824045
-2.9825792
-2.9824724
-3.0111284
-3.1677732
-3.4960144
-3.60938
-3.6094851
-3.6089995
-3.6096323
-3.6095657
-3.610331
-3.6102629
-3.624583
-3.6943834
-3.7650115
-3.7521083
-3.7421837
-3.7440856
-3.7262797
-3.7154214
-3.7109435
-3.6967094
-3.6861126
-3.6783805
-3.4469953
-3.10118
-2.9830403
-2.9834213
-2.983157
-2.984166
-2.9831078
-2.9836268
-3.1455226
-3.5880785
-6.076734
-4.688587
-4.123466
-3.742904
-3.6084034
-3.7437842
-4.0310464
-3.9034743
-3.5003436
-3.2912827
-3.1701481
-3.1684794
-3.1245482
-3.0090744
-2.9807544
-2.9825904
-2.9809718
-3.0182984
-3.1679513
-3.490357
-3.6129832
-3.6117733
-3.6113648
-3.5410342
-3.1854696
-3.0112925
-2.9826248
-2.981578
-2.9821126
-2.981442
-2.9826477
-2.9816337
-2.9818685
-2.98115
-2.9818835
-2.9809303
-3.0102973
-3.1666877
-3.4949703
-3.8767083
-4.393704
-4.900093
-5.508148
-6.075962
-6.0763936
-6.076179
-6.07568
-6.0759044
-6.0764604
-6.0773263
-6.0758524
-6.0767384
-5.5004964
-4.8943954
-4.3875346
-3.8693192
-3.4844306
-3.153838
-3.0011342
-2.9825664
-2.9821668
-2.9830093
-2.986093
-3.0623028
-3.1476858
-3.3101406
-3.73395
-6.0759473
-6.07587
-6.0750575
-6.0761256
-6.0753937
-5.5859504
-4.927509
-4.3929424
-4.0346594
-3.7671402
-3.6335442
-3.6279306
-3.4910731
-3.1626713
-3.0128489
-2.980793
-2.9812348
-2.9809349
-3.0161479
-3.1194847
-3.2786815
-3.5016072
-3.7680323
-3.3145177
-3.0349925
-2.9822521
-2.9820228
-2.981491
-2.981576
-3.0106618
-3.1234722
-3.1216238
-3.008607
-2.981556
-2.9813104
-2.981922
-2.981361
-3.010425
-3.1667626
-3.495082
-3.8764057
-4.3941417
-4.900598
-5.508382
-6.0766406
-6.0764194
-6.075896
-6.0759835
-6.0769653
-6.0758233
-6.07735
-5.5002565
-4.8938336
-4.3876224
-3.8707547
-3.490652
-3.1634245
-3.007239
-2.9823074
-2.9820142
-2.9825742
-2.9940739
-3.1105878
-3.356945
-3.5764396
-3.743988
-4.122583
-6.076595
-6.0759177
-6.0761204
-6.07501
-6.0757313
-6.076162
-6.0766387
-6.077053
-6.077101
-5.252302
-4.7268577
-4.3497667
-3.8718615
-3.496419
-3.1634068
-3.0204935
-2.9818423
-2.982009
-2.9830327
-2.9819303
-3.021574
-3.1673057
-3.3628302
-3.1159933
-2.9836373
-2.982636
-2.9820414
-2.9822094
-3.0106242
-3.1689162
-3.4964113
-3.4898655
-3.1634448
-3.0093358
-2.9812195
-2.9813545
-2.981503
-2.9812381
-3.0101075
-3.166377
-3.4950573
-3.8758945
-4.3938775
-4.900776
-5.5086703
-6.0763006
-6.0758734
-6.076668
-6.075672
-6.077217
-5.5010576
-4.8942065
-4.387019
-3.8712873
-3.4902275
-3.1639714
-3.009265
-2.9818513
-2.981447
-2.9818978
-2.9920554
-3.1248653
-3.418796
-3.7593284
-4.1742015
-4.3781013
-4.7402925
-6.075818
-6.076265
-6.0751395
-6.0769477
-6.0762687
-6.076505
-6.0764084
-6.075778
-6.075622
-6.0747623
-5.5018454
-4.894499
-4.3885784
-3.8711917
-3.4965827
-3.2811053
-3.1181493
-3.0127184
-2.9817364
-2.982087
-2.9812326
-3.0169563
-3.0553234
-2.987578
-2.9829178
-2.9811685
-2.981686
-3.0109193
-3.1688757
-3.4977067
-3.880203
-3.8708923
-3.4904468
-3.16315
-3.0089202
-2.9811597
-2.9814546
-2.981373
-2.9813778
-3.0101175
-3.166065
-3.4948072
-3.8765194
-4.3944373
-4.9007516
-5.507883
-6.0763035
-6.0752764
-6.0767365
-5.5005636
-4.894517
-4.3873224
-3.8706734
-3.4905586
-3.1637733
-3.0080686
-2.9819338
-2.9814901
-2.9815457
-2.984972
-3.105389
-3.4085546
-3.793062
-4.2787237
-4.750314
-5.5308537
-6.0760503
-6.076452
-6.0762324
-6.0767217
-6.0753875
-6.0766487
-6.076483
-6.076452
-6.076728
-6.0761805
-6.0762753
-6.074311
-5.5012803
-4.8945656
-4.387858
-4.0266533
-3.7426536
-3.4812605
-3.1627572
-3.0208004
-2.9816258
-2.9825249
-2.981108
-2.9817295
-2.9818978
-2.9812412
-2.982258
-2.9817822
-3.1264238
-3.4977865
-3.8799953
-4.397323
-4.386616
-3.8706927
-3.4904325
-3.1634226
-3.0086286
-2.9808402
-2.9807918
-2.9810677
-2.980764
-3.0093372
-3.1657822
-3.4943287
-3.8758538
-4.3940225
-4.900205
-5.506326
-6.0754013
-5.499836
-4.8938837
-4.387019
-3.8703742
-3.4897106
-3.1640155
-3.0076272
-2.9807932
-2.980947
-2.9804552
-2.981045
-3.0805604
-3.3616261
-3.750953
-4.2637315
-4.7949133
-5.6862397
-6.0756207
-6.0758424
-6.07606
-6.076033
-6.0750747
-6.076171
-6.075656
-6.075755
-6.0764194
-6.0763893
-6.076289
-6.074874
-5.828322
-5.3775406
-5.0157
-4.660318
-4.3239427
-4.013982
-3.7326415
-3.4835198
-3.27293
-3.0958464
-2.9802225
-2.9815185
-2.9806395
-2.9810994
-2.9820783
-2.9806473
-3.0229309
-3.2900648
-3.757722
-4.354198
-4.905032
-4.8933196
-4.3870387
-3.87034
-3.4903114
-3.162953
-3.0080113
-2.980565
-2.9806774
-2.9807882
-2.9805548
-3.009135
-3.1655624
-3.4948928
-3.8757982
-4.3925924
-4.899275
-5.4995785
-4.89311
-4.386661
-3.8705049
-3.4893417
-3.163312
-3.007901
-2.9809232
-2.979862
-2.9807935
-2.9804456
-3.053281
-3.302643
-3.6936872
-4.19788
-4.7402263
-5.660676
-6.074717
-6.075691
-6.0753384
-6.076416
-6.0764008
-6.076367
-6.076236
-6.0767865
-6.077603
-6.077094
-6.076898
-5.9414206
-5.450094
-5.0194273
-4.66412
-4.329766
-4.017863
-3.7274904
-3.480046
-3.27454
-3.1172705
-3.0187616
-2.981719
-2.9825773
-2.981627
-2.9822705
-2.982218
-2.9819508
-3.0124035
-3.1711924
-3.5084214
-4.0433125
-4.7284384
-6.0758524
-5.5010986
-4.8942804
-4.38832
-3.8714883
-3.4913785
-3.1641605
-3.0094695
-2.981902
-2.9819522
-2.9818707
-2.9816592
-3.010832
-3.1670294
-3.49533
-3.876709
-4.393412
-4.893188
-4.387424
-3.8710997
-3.4906185
-3.1641767
-3.0080974
-2.982
-2.9808297
-2.9805543
-2.9813132
-3.035753
-3.2506332
-3.6283252
-4.111719
-4.6639557
-5.500254
-6.07594
-6.0769563
-6.0760756
-6.0761194
-6.076179
-6.0760946
-6.076167
-6.076277
-6.0769205
-6.076145
-5.829614
-5.379175
-5.076638
-4.7616854
-4.3609934
-4.019484
-3.7314548
-3.4836102
-3.273568
-3.1150303
-3.0159538
-2.9821587
-2.981466
-2.9827423
-2.9816446
-2.9818692
-2.9814134
-2.9819093
-3.022768
-3.16903
-3.4995315
-3.8842893
-4.403828
-6.075444
-6.075334
-6.0753155
-5.500944
-4.893846
-4.3877444
-3.8712416
-3.490512
-3.163494
-3.0089555
-2.9811428
-2.980937
-2.9813783
-2.981636
-3.0101678
-3.1673012
-3.4951332
-3.8753612
-4.38703
-3.870694
-3.4903286
-3.1641562
-3.008148
-2.98153
-2.9813519
-2.9807742
-2.9807606
-3.018051
-3.2068105
-3.5726604
-4.026431
-4.5745435
-5.2122617
-6.0758033
-6.077228
-6.0759835
-6.076555
-6.076293
-6.0762663
-6.0764465
-6.075107
-5.823127
-5.3740883
-5.0176325
-4.663011
-4.3479
-4.2320733
-4.103707
-3.7928834
-3.488363
-3.2750223
-3.115875
-3.016291
-2.9820063
-2.9805539
-2.9811168
-2.981814
-2.9812784
-2.9814932
-2.9811091
-3.0209403
-3.1245484
-3.2854896
-3.5044615
-3.8809805
-4.3989563
-4.909973
-6.075145
-6.0749516
-6.0748897
-6.0747933
-5.50067
-4.8936076
-4.3874464
-3.870779
-3.49041
-3.1636016
-3.0086098
-2.9809353
-2.9812546
-2.9813752
-2.9822218
-3.0104494
-3.165486
-3.4937735
-3.8747787
-3.4915102
-3.1646962
-3.0087972
-2.98118
-2.9806368
-2.981318
-2.9810693
-3.0102522
-3.1756
-3.5181031
-3.9499543
-4.4903364
-5.0851145
-6.0764318
-6.0767603
-6.0754814
-6.0768023
-6.075628
-6.0756454
-6.07647
-5.2000327
-4.696679
-4.3670855
-4.2506576
-4.2323537
-4.0206394
-3.7295594
-3.5939085
-3.5324812
-3.3293638
-3.1333535
-3.0183752
-2.9817207
-2.981646
-2.981729
-2.9818392
-2.9820573
-2.9829278
-2.9834168
-3.0228455
-3.1260905
-3.2864604
-3.498512
-3.750099
-4.0375237
-4.2441454
-4.244289
-4.245105
-4.2448926
-4.245524
-4.2461004
-4.2460523
-4.246089
-4.246945
-4.246321
-4.246769
-3.872202
-3.4914134
-3.1647594
-3.009811
-2.9822395
-2.982788
-2.9830205
-2.9827368
-3.011536
-3.16682
-3.4939666
-3.169523
-3.0105379
-2.9834394
-2.9820569
-2.9814866
-2.9819787
-3.0096061
-3.1665413
-3.4982333
-3.8926394
-4.4174047
-4.9919367
-6.076717
-6.0768867
-6.076406
-6.0767064
-6.0757947
-6.0763154
-6.0756097
-6.0761323
-4.6889424
-4.123189
-3.7437449
-3.6083057
-3.593431
-3.4858706
-3.2763147
-3.148816
-3.1301713
-3.0403254
-2.98571
-2.9821115
-2.9814558
-2.981912
-2.9821408
-2.981766
-2.9822834
-3.0152745
-3.1276643
-3.2878554
-3.4996672
-3.6014583
-3.6021042
-3.6026728
-3.6032352
-3.6031337
-3.6033242
-3.603315
-3.6037889
-3.6042032
-3.6043217
-3.6044
-3.6050158
-3.6045663
-3.605204
-3.605147
-3.6051097
-3.6054347
-3.4918873
-3.1647098
-3.0099845
-2.9827273
-2.982882
-2.9832728
-2.9825952
-3.010095
-3.1228702
-3.011297
-2.9833016
-2.9823773
-2.98145
-2.9815233
-3.0101097
-3.166794
-3.4945443
-3.8766854
-4.3945165
-4.920688
-6.0763717
-6.0772095
-6.0769615
-6.0770535
-6.076829
-6.0764203
-6.075838
-6.076567
-6.076034
-4.350069
-3.734314
-3.31063
-3.1567907
-3.1481197
-3.1177104
-3.018405
-2.98244
-2.9820242
-2.9815083
-2.9819715
-2.9822438
-2.9815042
-2.981626
-2.9826093
-2.986009
-3.0427365
-3.151554
-3.1521184
-3.1521416
-3.1520102
-3.1519663
-3.152626
-3.1529365
-3.1534266
-3.153367
-3.152672
-3.1534374
-3.1532807
-3.153856
-3.1531901
-3.1543057
-3.1538932
-3.1540737
-3.1545138
-3.1546464
-3.154244
-3.1544964
-3.1547246
-3.1547952
-3.1547751
-3.0097368
-2.9826427
-2.9821339
-2.981937
-2.9821844
-2.981708
-2.9827414
-2.9822197
-2.9826193
-2.981946
-3.0095832
-3.1673384
-3.4953353
-3.876699
-4.3948674
-4.901576
-6.076829
-6.0769753
-6.0768476
-6.0777426
-6.07765
-6.0770903
-6.0770774
-6.07677
-6.075707
-6.0768075
-4.22537
-3.5877376
-3.1444604
-2.9826176
-2.9823208
-2.9828718
-2.9832537
-2.9827626
-2.981961
-2.9822564
-2.9826877
-2.9824002
-2.981934
-2.9820414
-2.9824765
-2.9819272
-2.9817486
-2.9826264
-2.9829054
-2.9822452
-2.9821646
-2.982297
-2.982494
-2.9835124
-2.9820533
-2.9824808
-2.9825542
-2.9819422
-2.9819539
-2.9818296
-2.9823747
-2.9819438
-2.981943
-2.9825385
-2.9817808
-2.982301
-2.9822955
-2.9825132
-2.9823916
-2.9820483
-2.9828634
-2.9827366
-2.9825268
-2.9829817
-2.982838
-2.981829
-2.9827998
-2.9827263
-2.9829533
-2.982743
-3.0100408
-3.1672456
-3.495799
-3.877025
-4.393956
-4.9016066
-6.0766554
-6.0760956
-6.0764537
-6.07723
-6.0771027
-6.077282
-6.077395
-6.0768976
-6.0763083
-6.0759377
-6.0761337
-4.22498
-3.587457
-3.1437285
-2.982216
-2.9824207
-2.9825969
-2.9828393
-2.982675
-2.9821382
-2.9818408
-2.9828284
-2.9826007
-2.9814954
-2.9823034
-2.9830532
-2.9820702
-2.9821866
-2.9825745
-2.982604
-2.9825525
-2.9822502
-2.9824822
-2.982451
-2.9825065
-2.9833033
-2.9820688
-2.9823902
-2.981937
-2.9822216
-2.981812
-2.982177
-2.9816723
-2.9819937
-2.981735
-2.982269
-2.9822264
-2.982132
-2.9821913
-2.981884
-2.9823313
-2.9821951
-2.9823074
-2.9827332
-2.9824734
-2.9820085
-2.982205
-2.9821582
-2.9825294
-2.9823384
-3.0109632
-3.167062
-3.495038
-3.8776302
-4.394354
-4.9006686
-6.0762625
-6.076307
-6.076085
-6.0761085
-6.077003
-6.0771766
-6.076419
-6.077056
-6.076729
-6.076026
-6.07637
-6.075754
-4.2250285
-3.5876882
-3.1442037
-2.981809
-2.9815624
-2.9825234
-2.9827425
-2.9829917
-2.9817996
-2.9819438
-2.9824677
-2.9829924
-2.981728
-2.981902
-2.9824493
-2.9824238
-2.9813654
-2.9824936
-2.982354
-2.982081
-2.9820325
-2.9813159
-2.9823577
-2.982537
-2.982517
-2.982349
-2.9814694
-2.9820814
-2.9820461
-2.9820855
-2.981647
-2.982023
-2.9820178
-2.981774
-2.981971
-2.9821732
-2.9819672
-2.9820342
-2.9820194
-2.9818459
-2.982179
-2.981895
-2.9824994
-2.9822633
-2.9822707
-2.9814432
-2.9821045
-2.9820545
-3.011091
-3.167532
-3.4951596
-3.8775046
-4.395311
-4.9011393
-6.075999
-6.076905
-6.0762243
-6.0763583
-6.0765314
-6.0767517
-6.077293
-6.077357
-6.0760036
-6.076205
-6.076917
-6.0753965
-6.0766344
-4.224769
-3.5871897
-3.1439097
-2.9824543
-2.98237
-2.9825876
-2.9830463
-2.9832366
-2.9824026
-2.981877
-2.9823947
-2.982668
-2.9819517
-2.9818087
-2.9827666
-2.9823215
-2.9823635
-2.982839
-2.982502
-2.982352
-2.982722
-2.9825335
-2.9823358
-2.9826238
-2.982396
-2.9828374
-2.9826913
-2.9822652
-2.9822154
-2.9823818
-2.9823246
-2.9822204
-2.9822788
-2.982521
-2.98215
-2.982404
-2.9823282
-2.9817963
-2.9825053
-2.9822464
-2.9818146
-2.9823263
-2.982524
-2.9825177
-2.9821846
-2.9819918
-2.982302
-2.982566
-3.123401
-3.495017
-3.8776088
-4.394685
-4.90204
-6.0759845
-6.0761914
-6.0765085
-6.0771914
-6.075942
-6.07631
-6.0771084
-6.0769486
-6.0769963
-6.076546
-6.0764937
-6.0756593
-6.076574
-6.076241
-4.3413196
-3.723644
-3.2983606
-3.1439486
-3.1441123
-3.1447034
-3.1447484
-3.1451058
-3.1445522
-3.1442437
-3.1448033
-3.1445668
-3.1441958
-3.144033
-3.1446936
-3.1444492
-3.1440415
-3.1439383
-3.1447122
-3.145014
-3.1443615
-3.1442475
-3.144121
-3.1442347
-3.144696
-3.14452
-3.1447072
-3.144612
-3.1444445
-3.144462
-3.144639
-3.144479
-3.144348
-3.1444566
-3.1444433
-3.144203
-3.144425
-3.1445038
-3.1441908
-3.1442997
-3.1446087
-3.144447
-3.144708
-3.1448772
-3.144247
-3.1444733
-3.1442144
-3.1448753
-3.3104107
-3.7439644
-4.3435564
-4.9016824
-6.0767426
-6.07571
-6.0761747
-6.076998
-6.075936
-6.076593
-6.075952
-6.076602
-6.076664
-6.0759873
-6.0770154
-6.0758576
-6.07597
-6.0762396
-6.0766244
-4.6724377
-4.1047163
-3.7232196
-3.5871458
-3.5870156
-3.5870256
-3.586999
-3.5873938
-3.5870135
-3.5865943
-3.586912
-3.5876184
-3.5870247
-3.587056
-3.5875058
-3.5872939
-3.5871775
-3.5876667
-3.5876546
-3.5874476
-3.5871723
-3.587282
-3.587763
-3.5877194
-3.5873992
-3.587251
-3.5872827
-3.58758
-3.5876153
-3.5873218
-3.5873044
-3.5874963
-3.5873885
-3.587403
-3.5876906
-3.5874467
-3.5872457
-3.5873756
-3.5872471
-3.5872371
-3.5876155
-3.5878086
-3.5873873
-3.5873413
-3.5872626
-3.5871599
-3.5875318
-3.5877717
-3.733894
-4.123255
-4.705042
-6.076295
-6.07579
-6.075956
-6.0761313
-6.076352
-6.0762916
-6.0755143
-6.076633
-6.075943
-6.0757446
-6.076543
-6.0752673
-6.0765314
-6.0762815
-6.075379
-6.076418
-6.076828
-6.076053
-6.0761642
-6.075551
-6.075687
-6.075952
-6.0760717
-6.076437
-6.0763774
-6.0766993
-6.076546
-6.0765896
-6.0762334
-6.0760455
-6.076203
-6.075918
-6.075873
-6.075907
-6.075896
-6.0759826
-6.076216
-6.0762477
-6.0759754
-6.0760326
-6.0762916
-6.076289
-6.075923
-6.075655
-6.075637
-6.0754976
-6.0753393
-6.0756016
-6.0760074
-6.0761557
-6.0760746
-6.076175
-6.076256
-6.0759354
-6.0760274
-6.076087
-6.0758142
-6.0762243
-6.0764465
-6.0764823
-6.0762277
-6.076455
-6.0762997
-6.0764194
-6.076071
-6.0761814
-6.0759087
-6.076015
-6.076385
-6.0763764
-6.0761943
-6.0762596
-6.076387
-6.076606
-6.0759144
-6.076655
-6.076423
-6.0755796
-6.0767007
-6.076197
-6.076443
-6.0764117
-6.075872
-4.672946
-4.1059937
-3.7241626
-3.5882342
-3.5879493
-3.5879462
-3.5876424
-3.5873206
-3.587985
-3.5883605
-3.5872686
-3.5871167
-3.5875177
-3.5873616
-3.5872502
-3.587688
-3.5877717
-3.588001
-3.5881884
-3.587987
-3.5880325
-3.5881329
-3.5879784
-3.5879536
-3.5884638
-3.5880725
-3.5871344
-3.5870333
-3.5875785
-3.5872948
-3.5871413
-3.5872746
-3.5875995
-3.5876663
-3.5877693
-3.5876362
-3.5874274
-3.5876036
-3.5872755
-3.587018
-3.5870614
-3.5871105
-3.5876544
-3.5875683
-3.5871031
-3.5869484
-3.587308
-3.5872655
-3.5873764
-3.587886
-3.5872486
-3.5874543
-3.5880368
-3.587589
-3.5880425
-3.5881913
-3.5878003
-3.5882838
-3.5880578
-3.5881314
-3.5881066
-3.5884311
-3.5883522
-3.5887864
-3.7244704
-4.1053967
-6.0763855
-4.105586
-3.4459581
-2.9827015
-2.81095
-2.811492
-2.8108356
-2.8115315
-2.8116941
-2.8115633
-2.812037
-2.8116686
-2.8118143
-2.8116255
-2.811248
-2.811065
-2.8106444
-2.810542
-2.810845
-2.8112173
-2.8114634
-2.810859
-2.8109396
-2.8112803
-2.811354
-2.8109107
-2.810806
-2.8111646
-2.8116078
-2.8111024
-2.8112369
-2.8113985
-2.81093
-2.810952
-2.8106723
-2.810571
-2.8107126
-2.8106492
-2.8104606
-2.810824
-2.8108542
-2.810715
-2.8117363
-2.8121748
-2.8119822
-2.8113856
-2.811146
-2.811267
-2.8118236
-2.8116539
-2.8118625
-2.8122573
-2.8115318
-2.8119843
-2.8117733
-2.8118556
-2.8118513
-2.81164
-2.8122673
-2.8117087
-2.8119438
-2.812354
-2.8115964
-2.8120024
-2.8118439
-2.9834163
-3.4468415
-6.0761814
-3.7236817
-2.9827428
-2.4322877
-2.2198184
-2.2193735
-2.2195551
-2.2188692
-2.2182982
-2.2192063
-2.2193356
-2.2188542
-2.2184606
-2.21841
-2.2181213
-2.2188673
-2.2183897
-2.218693
-2.2188284
-2.2191625
-2.21933
-2.2195015
-2.2190883
-2.2190688
-2.2190387
-2.2192998
-2.2191513
-2.2190044
-2.2186246
-2.2187226
-2.2188
-2.2183962
-2.2190237
-2.218233
-2.2188344
-2.2184346
-2.218169
-2.2183633
-2.2179499
-2.2181091
-2.2185287
-2.2191164
-2.219122
-2.2194645
-2.220067
-2.2194073
-2.2187846
-2.2196136
-2.2197156
-2.220134
-2.2200515
-2.219601
-2.2199614
-2.2202947
-2.2196324
-2.2197232
-2.2196064
-2.2194877
-2.220397
-2.2193065
-2.219952
-2.2197378
-2.2198038
-2.2198641
-2.2202597
-2.4326618
-2.9831953
-6.076725
-3.5891144
-2.8119915
-2.2203562
-1.9838278
-1.983455
-1.9831021
-1.9831715
-1.9828947
-1.983532
-1.9851315
-1.9830408
-1.983835
-1.9837964
-1.9829075
-1.9834847
-1.9832928
-1.9829397
-1.9835968
-1.9834988
-1.9837425
-1.9835396
-1.9835546
-1.983686
-1.9841046
-1.9842234
-1.9836624
-1.9836388
-1.9831481
-1.9831572
-1.9832325
-1.9836962
-1.9829209
-1.9832065
-1.9824765
-1.9830875
-1.9830153
-1.9826977
-1.9826775
-1.9825449
-1.9832935
-1.9835644
-1.9838378
-1.9849803
-1.9845984
-1.9841619
-1.9843218
-1.9853189
-1.9854991
-1.9843163
-1.9858229
-1.9844058
-1.9839184
-1.9857407
-1.9840846
-1.9839866
-1.9845986
-1.9838436
-1.9845731
-1.9839303
-1.9835954
-1.9844365
-1.9837794
-1.9832485
-1.9844289
-2.219875
-2.812033
-6.0766187
-3.5876205
-2.8112497
-2.2177773
-1.9830732
-1.9818851
-1.9830675
-1.9820788
-1.9822165
-1.983078
-1.9825146
-1.9819428
-1.9818286
-1.9814196
-1.9825501
-1.9817834
-1.9819621
-1.9815962
-1.9823911
-1.9831066
-1.9827611
-1.9820291
-1.9819995
-1.982341
-1.9834044
-1.9826796
-1.982651
-1.9824057
-1.9819943
-1.9820998
-1.9819912
-1.9819745
-1.9820085
-1.9815784
-1.9818801
-1.9813259
-1.9808718
-1.9811543
-1.9813006
-1.980834
-1.9811777
-1.9817073
-1.9823725
-1.9823632
-1.9826922
-1.9820449
-1.9820385
-1.9829583
-1.9834852
-1.9834013
-1.9828115
-1.9829705
-1.982175
-1.9836953
-1.9822397
-1.9830341
-1.9835744
-1.9816593
-1.9836507
-1.9820765
-1.9828935
-1.9818113
-1.9834182
-1.9822272
-1.9835134
-2.2189674
-2.8115392
-6.07648
-3.5882375
-2.810406
-2.2194035
-1.9823642
-1.9823751
-1.9811918
-1.9807607
-1.9805758
-1.9816228
-1.9820746
-1.9803742
-1.9817535
-1.9816916
-1.9797047
-1.9825046
-1.9797158
-1.9811475
-1.9818411
-1.9816616
-1.9813892
-1.9813249
-1.9807243
-1.9810592
-1.9818821
-1.981961
-1.9818492
-1.9810328
-1.9817446
-1.9807719
-1.9811682
-1.9806501
-1.9811472
-1.9808582
-1.980558
-1.9808115
-1.9810197
-1.9803834
-1.9810852
-1.981122
-1.9805614
-1.9814306
-1.9819103
-1.982816
-1.9831142
-1.9830928
-1.9923103
-2.0078037
-2.0032213
-2.0002806
-2.0015166
-1.9964788
-1.9942832
-1.9939518
-1.990922
-1.9898379
-1.9885292
-1.9863212
-1.9836342
-1.9819994
-1.983253
-1.9826837
-1.9810418
-1.9835429
-1.982158
-2.2198632
-2.8108044
-6.0763097
-3.58863
-2.8120804
-2.2191143
-1.9831631
-2.0914333
-2.106727
-2.107399
-2.0926042
-1.981978
-1.9816062
-1.9808909
-1.9810076
-1.980774
-1.9818872
-1.9807615
-1.9825065
-1.9806184
-1.9832637
-1.9824796
-1.9825132
-1.9823754
-1.981563
-1.9820986
-1.9827664
-1.9820718
-1.9818981
-1.981907
-1.9805057
-1.9813089
-1.9808514
-1.981128
-1.9810387
-1.9807379
-2.02352
-2.2342155
-2.2334552
-2.234345
-2.2337358
-2.2339098
-2.2343245
-2.2336946
-2.2344615
-2.2353995
-2.235786
-2.2468626
-2.3110876
-2.3717668
-2.3579152
-2.3482714
-2.3503919
-2.3352864
-2.322821
-2.321698
-2.3085573
-2.2984886
-2.2933853
-2.2773051
-2.2518117
-2.0735602
-1.9825153
-1.9816749
-1.9834378
-1.9812236
-1.9846799
-2.2182322
-2.811505
-6.0763907
-3.7339635
-2.9947164
-2.447207
-2.2357614
-2.4467738
-2.620148
-2.6191819
-2.2789595
-2.0425823
-1.9850023
-1.9838467
-1.98314
-1.982254
-1.9812921
-1.9829855
-2.031412
-2.195491
-2.2387335
-2.2395816
-2.2391176
-2.2379005
-2.2374039
-2.2378087
-2.1970487
-2.0460916
-1.9825873
-1.982491
-1.9824383
-1.9814804
-1.9819945
-1.9817139
-1.981767
-1.9818624
-1.9807079
-2.0242047
-2.2503705
-2.6909573
-2.837884
-2.836828
-2.8367903
-2.8374095
-2.8373134
-2.8384275
-2.838683
-2.856498
-2.9443653
-3.0322886
-3.0165975
-3.004936
-3.006139
-2.984766
-2.9699297
-2.965123
-2.9472659
-2.9339228
-2.9248075
-2.6277971
-2.1557672
-1.9825001
-1.9824245
-1.984067
-1.9821242
-1.9837193
-1.982651
-2.21941
-2.8114824
-6.0760856
-4.1240315
-3.468637
-3.0071776
-2.8377607
-3.0077596
-3.358105
-3.204146
-2.6980162
-2.4225025
-2.257111
-2.2512107
-2.191676
-2.0219798
-1.9824531
-1.9811572
-1.982408
-2.03544
-2.2526865
-2.6855516
-2.842533
-2.8425152
-2.840708
-2.7500384
-2.276946
-2.0259526
-1.9827807
-1.9820093
-1.9818887
-1.9822538
-1.9819365
-1.9826081
-1.981881
-1.9817138
-1.9818225
-1.981135
-2.0243187
-2.2501144
-2.6911404
-3.1711247
-3.784707
-4.363242
-5.035376
-6.076494
-6.076857
-6.0764594
-6.075239
-6.076064
-6.07749
-6.076988
-6.077242
-5.6511807
-5.0270524
-4.3563533
-3.7779903
-3.1628375
-2.678033
-2.2324514
-2.0121512
-1.9828215
-1.9846239
-1.9825935
-1.9898391
-2.1009462
-2.2241201
-2.447768
-2.9950209
-6.076427
-6.0762014
-6.0762825
-6.077095
-6.077819
-5.122341
-4.3940015
-3.7847068
-3.36265
-3.0378792
-2.8707945
-2.8641317
-2.6866276
-2.2483912
-2.0277557
-1.9827054
-1.9814938
-1.982841
-2.0333476
-2.1831686
-2.4072978
-2.7002769
-3.0375655
-2.4538198
-2.061536
-1.9838996
-1.9835997
-1.9833801
-1.9836228
-2.0259657
-2.1911502
-2.186566
-2.0239694
-1.9822967
-1.9826188
-1.9829681
-1.9819821
-2.0255418
-2.2502685
-2.691253
-3.171447
-3.7853816
-4.364208
-5.0362754
-6.077789
-6.0763674
-6.075845
-6.0768595
-6.077044
-6.0772724
-5.6516633
-5.0282006
-4.3556104
-3.77829
-3.1649532
-2.6857514
-2.246454
-2.0208073
-1.983751
-1.9841628
-1.9825478
-2.0017018
-2.1702726
-2.5111098
-2.7982066
-3.0079434
-3.469249
-6.075985
-6.076506
-6.075628
-6.0757837
-6.074786
-6.075183
-6.0753746
-6.0754204
-6.0748315
-4.753873
-4.1675243
-3.7311077
-3.1650875
-2.6910198
-2.24598
-2.0368648
-1.981476
-1.9810451
-1.9821392
-1.9829633
-2.039104
-2.2505338
-2.5166965
-2.177048
-1.9850781
-1.9827821
-1.9817939
-1.9813111
-2.0248525
-2.252546
-2.692364
-2.6840107
-2.244275
-2.022279
-1.9805751
-1.9817199
-1.9816301
-1.980595
-2.0235426
-2.2485833
-2.6900558
-3.1695962
-3.7837248
-4.363006
-5.034531
-6.0750484
-6.074179
-6.074242
-6.075153
-5.649407
-5.027005
-4.3541894
-3.7760906
-3.1639497
-2.6837106
-2.2458024
-2.0219238
-1.9809656
-1.9823604
-1.9817494
-1.9974825
-2.1895206
-2.5904453
-3.0264535
-3.5267453
-3.7683504
-4.180767
-6.076052
-6.0749297
-6.075092
-6.07471
-6.0762806
-6.0743575
-6.0749393
-6.074273
-6.0748105
-6.075416
-5.026797
-4.3550754
-3.7762668
-3.163849
-2.6910062
-2.4072354
-2.1798136
-2.0270255
-1.9814521
-1.9806949
-1.9813827
-2.0309088
-2.0893734
-1.9916322
-1.9813071
-1.9823179
-1.9809067
-2.0244865
-2.251042
-2.6934133
-3.173523
-3.1623309
-2.6838727
-2.244149
-2.0219948
-1.9799243
-1.9805647
-1.9802982
-1.9797953
-2.0226877
-2.2477753
-2.6892264
-3.1697092
-3.783925
-4.3627453
-5.03355
-6.0741396
-6.074075
-5.6490006
-5.0266414
-4.354778
-3.7766194
-3.162932
-2.6838827
-2.2455585
-2.020639
-1.9811085
-1.9812171
-1.9813613
-1.9867659
-2.162042
-2.5775132
-3.0674129
-3.6487308
-4.1943235
-4.943862
-6.076265
-6.0754833
-6.076487
-6.0759435
-6.0764236
-6.0749373
-6.076748
-6.076089
-6.0761323
-6.075282
-6.0749087
-6.076648
-5.0267386
-4.3573117
-3.778616
-3.353574
-3.0055695
-2.6744304
-2.2457225
-2.0382247
-1.9829748
-1.980799
-1.9823856
-1.9811912
-1.9813743
-1.9838138
-1.981978
-1.9833622
-2.1940572
-2.695046
-3.1754391
-3.789385
-3.776618
-3.1639311
-2.6852193
-2.2451887
-2.0223885
-1.9814037
-1.9816481
-1.9817308
-1.9808856
-2.0240076
-2.2494686
-2.6907384
-3.1709533
-3.7851977
-4.3629255
-5.032749
-5.648338
-5.026178
-4.3545117
-3.7774298
-3.1639848
-2.683562
-2.2461991
-2.0210786
-1.9809389
-1.981363
-1.9807514
-1.9823573
-2.1276927
-2.5162232
-3.0158615
-3.6325777
-4.2448673
-5.071546
-6.076685
-6.075182
-6.076077
-6.0752025
-6.075176
-6.0755963
-6.0761347
-6.074412
-6.0748587
-6.074745
-6.074403
-6.076058
-5.3817315
-4.8914204
-4.491073
-4.091672
-3.7035615
-3.3363822
-2.9936383
-2.675522
-2.3987935
-2.1481862
-1.9821955
-1.9806821
-1.9813173
-1.9820942
-1.9815702
-1.9823117
-2.04272
-2.4195285
-3.0243995
-3.7375643
-4.3675117
-4.3544717
-3.775882
-3.1630676
-2.684674
-2.2451084
-2.0219982
-1.9807398
-1.9809235
-1.9812344
-1.9807029
-2.023753
-2.2491934
-2.691213
-3.1707423
-3.7831986
-4.361003
-5.025579
-4.353615
-3.7760894
-3.1636353
-2.6838675
-2.2458818
-2.020842
-1.9810015
-1.9810113
-1.9805439
-1.9803652
-2.0894737
-2.4378924
-2.9433744
-3.5558953
-4.181763
-5.0501404
-6.075154
-6.0748143
-6.0758085
-6.075896
-6.075836
-6.0762577
-6.0751734
-6.0751586
-6.0757785
-6.075566
-6.076057
-5.506035
-4.971566
-4.496573
-4.0947037
-3.7100377
-3.341919
-2.985591
-2.6714454
-2.3978524
-2.1803875
-2.0340421
-1.9824216
-1.9809809
-1.9815235
-1.9810781
-1.9814432
-1.9827147
-2.0257604
-2.2552354
-2.707764
-3.3695543
-4.166889
-6.0732274
-5.0247455
-4.3539205
-3.776292
-3.1634178
-2.684791
-2.2453642
-2.0222692