# vtk DataFile Version 1.0
Texture map for thresholding data (use boolean textures for 2D map)
ASCII

DATASET STRUCTURED_POINTS
DIMENSIONS 67 27 11
SPACING 1.0 1.0 1.0
ORIGIN -3.0 -3.0 -3.0

POINT_DATA 19899
SCALARS distance float 1
LOOKUP_TABLE default
-11.690473
-13.848069
-12.8429985
-12.319542
-12.215887
-12.211498
-12.211498
-12.211498
-12.211499
-12.211498
-12.211498
-12.211499
-12.211498
-12.211498
-12.211499
-12.211498
-12.211498
-12.211498
-12.211498
-12.211498
-12.211499
-12.211498
-12.211498
-12.211498
-12.211498
-12.211498
-12.211498
-12.211499
-12.211498
-12.211499
-12.211498
-12.211498
-12.211498
-12.211498
-12.211498
-12.211498
-12.211498
-12.211498
-12.211498
-12.211499
-12.211498
-12.211498
-12.211498
-12.211498
-12.211498
-12.211498
-12.211499
-12.211498
-12.211498
-12.211499
-12.211498
-12.211498
-12.211498
-12.211498
-12.211499
-12.211498
-12.211498
-12.211498
-12.211498
-12.211499
-12.211498
-12.211498
-12.215887
-12.319542
-12.883228
-14.691156
-13.9822235
-13.848069
-16.116522
-14.667437
-13.921141
-13.772019
-13.765679
-13.765678
-13.765679
-13.765679
-13.765679
-13.765679
-13.765678
-13.765679
-13.765679
-13.765679
-13.765678
-13.765678
-13.765678
-13.765679
-13.765679
-13.765678
-13.765678
-13.765679
-13.765679
-13.765679
-13.765678
-13.765679
-13.765679
-13.765679
-13.765678
-13.765678
-13.765679
-13.765678
-13.765678
-13.765678
-13.765678
-13.765679
-13.765678
-13.765679
-13.765678
-13.765678
-13.765679
-13.765678
-13.765678
-13.765678
-13.765679
-13.765678
-13.765679
-13.765678
-13.765679
-13.765679
-13.765678
-13.765678
-13.765678
-13.765679
-13.765678
-13.765679
-13.765678
-13.765678
-13.765678
-13.765678
-13.765678
-13.772019
-13.921141
-14.733457
-17.48824
-17.576788
-12.8429985
-14.667436
-12.998974
-12.144592
-11.972082
-11.964796
-11.964796
-11.964796
-11.964796
-11.964796
-11.964796
-11.964796
-11.964796
-11.964796
-11.964797
-11.964796
-11.964796
-11.964796
-11.964796
-11.964796
-11.964796
-11.964796
-11.964796
-11.964796
-11.964796
-11.964797
-11.964796
-11.964796
-11.964796
-11.964796
-11.964796
-11.964796
-11.964796
-11.964796
-11.964796
-11.964796
-11.964796
-11.964796
-11.964796
-11.964796
-11.964796
-11.964796
-11.964796
-11.964796
-11.964797
-11.964796
-11.964796
-11.964796
-11.964796
-11.964796
-11.964796
-11.964796
-11.964796
-11.964796
-11.964796
-11.964796
-11.964796
-11.964796
-11.964797
-11.964796
-11.964796
-11.964796
-11.972081
-12.144592
-13.079572
-16.346237
-17.406458
-12.319542
-13.921141
-12.144592
-11.233128
-11.047832
-11.04002
-11.04002
-11.04002
-11.04002
-11.04002
-11.04002
-11.04002
-11.04002
-11.04002
-11.04002
-11.04002
-11.04002
-11.04002
-11.04002
-11.04002
-11.04002
-11.04002
-11.04002
-11.04002
-11.04002
-11.04002
-11.04002
-11.04002
-11.04002
-11.04002
-11.04002
-11.04002
-11.040022
-11.04003
-11.040031
-11.040032
-11.040031
-11.040031
-11.040031
-11.040031
-11.040031
-11.040031
-11.040031
-11.040037
-11.040116
-11.0404005
-11.040698
-11.040687
-11.040614
-11.040582
-11.040503
-11.04043
-11.040384
-11.040321
-11.040266
-11.04022
-11.0401535
-11.040078
-11.040047
-11.040047
-11.04003
-11.04002
-11.047832
-11.233128
-12.231416
-15.731895
-17.241682
-12.215892
-13.772029
-11.972091
-11.048607
-10.862606
-10.855764
-10.8557825
-10.854731
-10.852502
-10.851718
-10.851718
-10.851718
-10.851718
-10.851718
-10.851718
-10.851718
-10.851722
-10.851732
-10.851736
-10.851735
-10.851735
-10.851734
-10.851733
-10.8517275
-10.85172
-10.851718
-10.851718
-10.851718
-10.851718
-10.851718
-10.851718
-10.85172
-10.852064
-10.854514
-10.858978
-10.860496
-10.860493
-10.860491
-10.860489
-10.860486
-10.860485
-10.860483
-10.860489
-10.860744
-10.863214
-10.870873
-10.8785925
-10.878524
-10.876792
-10.875925
-10.873915
-10.872068
-10.870835
-10.869191
-10.867688
-10.8664
-10.864467
-10.860982
-10.855957
-10.852936
-10.851909
-10.8517275
-10.859638
-11.047832
-12.060026
-15.608843
-17.208904
-12.216341
-13.772673
-11.973597
-11.066927
-10.929768
-10.949182
-10.948268
-10.917982
-10.864186
-10.8450365
-10.8438425
-10.843824
-10.843804
-10.843798
-10.844153
-10.846275
-10.850157
-10.852389
-10.852778
-10.852758
-10.852734
-10.852707
-10.852373
-10.850377
-10.846561
-10.844239
-10.843798
-10.843798
-10.843798
-10.843798
-10.843798
-10.844103
-10.85194
-10.900624
-10.994144
-11.033606
-11.046809
-11.053142
-11.054243
-11.054217
-11.054193
-11.054171
-11.054253
-11.057157
-11.078204
-11.134044
-11.185292
-11.187194
-11.177509
-11.172169
-11.159736
-11.148097
-11.13997
-11.128835
-11.118312
-11.106459
-11.080488
-11.022991
-10.924931
-10.860753
-10.844991
-10.843824
-10.85172
-11.04003
-12.052751
-15.603634
-17.207563
-12.327253
-13.932175
-12.160903
-11.328488
-11.387455
-11.549879
-11.52045
-11.270959
-10.9782
-10.867878
-10.85377
-10.850596
-10.846195
-10.844445
-10.852692
-10.897286
-10.978775
-11.029293
-11.048827
-11.055467
-11.056374
-11.055077
-11.042074
-10.990035
-10.904926
-10.854753
-10.844237
-10.843798
-10.8438
-10.843806
-10.843806
-10.844614
-10.865926
-11.004432
-11.305454
-11.559432
-11.812867
-11.959384
-12.00419
-12.027435
-12.05128
-12.078092
-12.101577
-12.118085
-12.184137
-12.346702
-12.48984
-12.5009
-12.477693
-12.462582
-12.421438
-12.368729
-12.320346
-12.265085
-12.210451
-12.115885
-11.863677
-11.47661
-11.087725
-10.887483
-10.845869
-10.844746
-10.855767
-11.047346
-12.060675
-15.609383
-17.209044
-12.914006
-14.777096
-13.135546
-12.421786
-12.715054
-13.133209
-12.9462185
-12.14021
-11.433181
-11.130093
-11.059553
-10.998975
-10.903529
-10.854946
-10.86896
-10.997912
-11.268736
-11.547803
-11.812113
-11.956148
-11.9929495
-11.979231
-11.831967
-11.460222
-11.068226
-10.88109
-10.845295
-10.844103
-10.846148
-10.849739
-10.849679
-10.84637
-10.852911
-10.922194
-11.166501
-11.703244
-12.532074
-13.199792
-13.671724
-14.156273
-14.677164
-15.255924
-15.764235
-15.93742
-16.028042
-16.216469
-16.38424
-16.401539
-16.374401
-16.321665
-16.08406
-15.577034
-14.992704
-14.4360485
-13.9118805
-13.347061
-12.473641
-11.536077
-11.009826
-10.862916
-10.847743
-10.872379
-10.954164
-11.215999
-12.240739
-15.740889
-17.244112
-14.940025
-17.809374
-16.673733
-16.05547
-15.9526825
-15.8973675
-15.127481
-13.802191
-12.757453
-12.221792
-12.022257
-11.714134
-11.227218
-10.937451
-10.866064
-10.92453
-11.164306
-11.691014
-12.449858
-12.9846325
-13.273454
-13.329416
-12.749731
-11.759514
-11.0959
-10.877684
-10.845664
-10.854346
-10.903802
-10.985059
-10.983712
-10.902012
-10.8544
-10.855906
-10.934793
-11.255661
-12.009338
-13.128968
-14.5128355
-16.173025
-18.010418
-20.03983
-21.926409
-22.812674
-23.01479
-23.08494
-23.136316
-23.13989
-23.092918
-22.811005
-21.843233
-20.063704
-18.08384
-16.23821
-14.563196
-13.141356
-11.947805
-11.176519
-10.89396
-10.851894
-10.894835
-11.0846195
-11.491659
-12.044089
-13.113067
-16.383657
-17.416754
-18.510386
-23.30927
-23.183071
-22.715702
-21.594126
-20.200594
-18.765898
-17.311972
-15.801792
-14.762682
-14.113397
-13.221843
-12.078722
-11.2779665
-10.949788
-10.87531
-10.942674
-11.223139
-11.751594
-12.38544
-13.112657
-13.453613
-12.518447
-11.426927
-10.95424
-10.854696
-10.8559475
-10.938131
-11.230317
-11.648889
-11.642005
-11.221171
-10.934467
-10.855607
-10.856
-10.938413
-11.271949
-12.090692
-13.465041
-15.285513
-17.443329
-19.835655
-22.346245
-24.370977
-25.261215
-25.442379
-25.45552
-25.416245
-25.137701
-24.152664
-22.205
-19.787428
-17.41972
-15.264978
-13.4459095
-12.070498
-11.251339
-10.925449
-10.856974
-10.903254
-11.155093
-11.798121
-12.7956
-13.843213
-15.021344
-17.834606
-17.811611
-19.738272
-25.211718
-25.454218
-25.324892
-24.879438
-24.316639
-23.798452
-22.914038
-20.890015
-18.802397
-17.042912
-15.239304
-13.491055
-12.139211
-11.388578
-11.051103
-10.918001
-10.918994
-11.050619
-11.379162
-11.974669
-12.330741
-11.694557
-11.057584
-10.866465
-10.855318
-10.938371
-11.277985
-12.08417
-13.02653
-13.010991
-12.062847
-11.266702
-10.936015
-10.855621
-10.855983
-10.93832
-11.274311
-12.105
-13.500238
-15.344521
-17.529156
-19.94468
-22.461893
-24.486856
-25.37411
-25.513063
-25.247597
-24.262583
-22.314287
-19.888948
-17.500153
-15.320641
-13.480874
-12.091332
-11.266168
-10.934503
-10.857712
-10.894068
-11.149109
-11.872755
-13.125747
-14.72112
-16.39786
-18.049444
-20.388826
-18.532082
-19.796453
-25.302551
-25.567541
-25.561876
-25.540234
-25.512487
-25.480068
-25.259045
-24.260946
-22.248446
-19.821686
-17.473593
-15.354353
-13.699739
-12.589723
-11.803976
-11.233371
-10.949648
-10.879759
-10.949382
-11.166132
-11.303001
-11.076645
-10.88803
-10.849128
-10.907761
-11.24082
-12.099748
-13.487947
-14.821284
-14.79972
-13.458028
-12.091489
-11.267409
-10.936095
-10.855634
-10.85597
-10.938237
-11.274069
-12.104539
-13.499593
-15.343758
-17.528334
-19.943874
-22.460238
-24.454224
-25.074574
-24.255814
-22.313824
-19.888472
-17.49971
-15.320261
-13.480616
-12.091514
-11.267329
-10.936
-10.856872
-10.880708
-11.100195
-11.795353
-13.105913
-14.903155
-17.041553
-19.441324
-21.89199
-23.68604
-19.46142
-19.796453
-25.302551
-25.567541
-25.567541
-25.567541
-25.567541
-25.56522
-25.535585
-25.256178
-24.06707
-21.77971
-19.387114
-17.295742
-15.620943
-14.291159
-13.108346
-12.031945
-11.340594
-11.006953
-10.883869
-10.890949
-10.90989
-10.871543
-10.848145
-10.863584
-11.0608015
-11.844382
-13.356467
-15.285706
-16.972797
-16.946745
-15.2971
-13.481098
-12.091981
-11.267644
-10.936165
-10.855643
-10.855955
-10.938163
-11.273842
-12.104123
-13.499007
-15.34306
-17.527569
-19.940203
-22.366056
-23.60903
-22.284796
-19.887997
-17.499275
-15.319876
-13.480312
-12.09131
-11.267239
-10.936016
-10.856353
-10.870636
-11.047374
-11.666171
-12.923854
-14.74525
-17.016422
-19.699152
-22.494543
-24.496086
-25.086567
-19.77628
-19.796453
-25.302551
-25.567541
-25.567541
-25.564161
-25.548405
-25.477232
-25.221872
-24.598732
-23.259146
-21.357359
-19.492352
-17.796677
-16.27867
-14.930985
-13.712358
-12.626856
-11.794755
-11.226752
-10.919796
-10.84877
-10.846318
-10.845486
-10.856506
-10.952684
-11.409012
-12.649997
-14.721563
-17.363516
-19.625414
-19.427145
-17.48281
-15.321444
-13.481777
-12.0924225
-11.267857
-10.936232
-10.855651
-10.855945
-10.938093
-11.273634
-12.103739
-13.498466
-15.342417
-17.525595
-19.864368
-21.260744
-19.840376
-17.498835
-15.319489
-13.480003
-12.091103
-11.267131
-10.935982
-10.855966
-10.864341
-11.005218
-11.532653
-12.692855
-14.467684
-16.729233
-19.471659
-22.456902
-24.582659
-25.402086
-25.290947
-19.796453
-19.796453
-25.299126
-25.550568
-25.528856
-25.437483
-25.13497
-24.609917
-23.65719
-22.19864
-20.477268
-18.800753
-17.273407
-15.864201
-14.57451
-13.450366
-12.518546
-11.797035
-11.297285
-11.002776
-10.87234
-10.845414
-10.846907
-10.863027
-10.951332
-11.289549
-12.166816
-13.779685
-16.362722
-20.042086
-22.916891
-22.267422
-19.913422
-17.503857
-15.322258
-13.482392
-12.09282
-11.26805
-10.936292
-10.855661
-10.855936
-10.93803
-11.273448
-12.103384
-13.4979725
-15.341549
-17.4684
-18.767765
-17.44894
-15.319117
-13.479694
-12.090891
-11.267027
-10.935948
-10.8557005
-10.859014
-10.970894
-11.422067
-12.4751425
-14.159323
-16.34343
-19.01915
-22.104801
-24.479853
-25.397474
-25.557081
-25.302551
-19.796453
-19.753582
-25.158688
-25.125729
-24.731636
-24.175741
-23.078568
-21.751543
-20.504889
-19.101627
-17.482456
-15.951651
-14.634664
-13.503535
-12.555507
-11.827473
-11.331741
-11.046576
-10.912388
-10.8595915
-10.848487
-10.861773
-10.917852
-11.060527
-11.4015
-12.158391
-13.520937
-15.431126
-18.509672
-22.91422
-24.893597
-24.372213
-22.35584
-19.839495
-17.44757
-15.292782
-13.473032
-12.091815
-11.268225
-10.936344
-10.85567
-10.855926
-10.937972
-11.273273
-12.103059
-13.497273
-15.290451
-16.455755
-15.274805
-13.479787
-12.090696
-11.266919
-10.935915
-10.855607
-10.856491
-10.947103
-11.329758
-12.285468
-13.880685
-15.979908
-18.544523
-21.568808
-24.243912
-25.36035
-25.555456
-25.567541
-25.302551
-19.796453
-18.902073
-23.647556
-22.819725
-21.64271
-20.53436
-19.191074
-17.867012
-16.964783
-16.092651
-14.851698
-13.577886
-12.5708065
-11.835285
-11.3340225
-11.045111
-10.911533
-10.860295
-10.849526
-10.862196
-10.918207
-11.057993
-11.351638
-11.853535
-12.597816
-13.663855
-15.123276
-16.857721
-19.289494
-22.487625
-23.556211
-23.440046
-22.551092
-20.654861
-18.623138
-16.783676
-15.049422
-13.413571
-12.077382
-11.26576
-10.936391
-10.855678
-10.855917
-10.937917
-11.273103
-12.102609
-13.4541445
-14.405358
-13.446064
-12.092577
-11.266986
-10.935884
-10.855595
-10.855999
-10.939192
-11.284162
-12.152789
-13.64127
-15.657249
-18.170319
-21.208334
-24.016668
-25.301414
-25.55156
-25.567541
-25.567541
-25.302551
-19.796453
-16.25925
-19.561625
-18.335371
-17.41567
-16.777782
-15.845793
-14.773683
-14.074314
-13.549233
-12.745595
-11.915667
-11.348923
-11.047558
-10.912472
-10.860085
-10.847655
-10.856304
-10.90578
-11.041893
-11.331503
-11.799422
-12.383683
-13.073704
-13.900725
-14.827076
-15.667397
-16.274391
-16.940285
-17.769766
-18.040049
-18.04018
-17.878788
-17.368387
-16.789316
-16.259491
-15.567041
-14.40002
-13.108639
-11.997469
-11.249418
-10.932759
-10.85558
-10.855907
-10.937852
-11.272395
-12.059106
-12.720025
-12.059681
-11.270186
-10.936254
-10.8556
-10.855977
-10.9383335
-11.274763
-12.109906
-13.525515
-15.433968
-17.867373
-20.931986
-23.877178
-25.266718
-25.547897
-25.567541
-25.567541
-25.567541
-25.302551
-19.796453
-14.113142
-16.456291
-15.001347
-14.220957
-13.900691
-13.3688755
-12.603372
-12.074053
-11.791067
-11.420964
-11.086867
-10.919033
-10.860411
-10.846639
-10.84587
-10.8625345
-10.941956
-11.13913
-11.466263
-11.951148
-12.529113
-12.96824
-13.243254
-13.497765
-13.760381
-13.949869
-14.0170555
-14.05071
-14.0896
-14.102783
-14.103834
-14.098341
-14.075923
-14.049831
-14.023071
-13.923552
-13.620463
-13.182265
-12.517505
-11.692825
-11.16102
-10.920355
-10.852917
-10.855607
-10.936251
-11.218694
-11.505247
-11.221226
-10.9368305
-10.855782
-10.855985
-10.938356
-11.274503
-12.105552
-13.502029
-15.364704
-17.72423
-20.741411
-23.770685
-25.242077
-25.545837
-25.567541
-25.567541
-25.567541
-25.567541
-25.302551
-19.796453
-12.8745575
-14.712139
-13.049208
-12.187432
-11.946811
-11.712482
-11.339351
-11.094693
-11.007111
-10.928698
-10.867785
-10.847639
-10.844205
-10.843938
-10.84843
-10.892584
-11.055675
-11.303695
-11.476788
-11.643247
-11.822859
-11.932919
-11.966665
-11.980339
-11.99339
-12.002504
-12.005321
-12.006094
-12.00681
-12.007482
-12.008103
-12.008687
-12.009231
-12.00974
-12.010215
-12.00702
-11.992667
-11.949456
-11.803255
-11.551025
-11.299087
-11.001097
-10.865179
-10.845168
-10.854064
-10.9015045
-10.95613
-10.902243
-10.85492
-10.856015
-10.938389
-11.274606
-12.105718
-13.5014925
-15.359184
-17.698677
-20.681898
-23.71493
-25.224455
-25.544273
-25.567541
-25.567541
-25.567541
-25.567541
-25.567541
-25.302551
-19.796453
-12.327253
-13.932173
-12.157142
-11.244062
-11.044719
-10.990766
-10.910747
-10.862217
-10.850675
-10.847002
-10.844485
-10.843829
-10.843798
-10.84385
-10.845531
-10.861735
-10.919083
-10.995926
-11.0248785
-11.034023
-11.042723
-11.047873
-11.049159
-11.049418
-11.049659
-11.049888
-11.0501
-11.0503
-11.050483
-11.0506525
-11.050818
-11.050965
-11.051107
-11.051238
-11.051364
-11.0514765
-11.051583
-11.050553
-11.044286
-11.031186
-10.99203
-10.899359
-10.851635
-10.8440895
-10.844093
-10.846081
-10.8484335
-10.84671
-10.855733
-10.938422
-11.274704
-12.105916
-13.501786
-15.3595295
-17.698647
-20.677711
-23.70331
-25.218628
-25.543411
-25.567541
-25.567541
-25.567541
-25.567541
-25.567541
-25.567541
-25.302551
-19.796453
-12.216341
-13.772673
-11.972829
-11.048492
-10.859636
-10.849707
-10.846224
-10.844175
-10.843799
-10.843798
-10.843798
-10.843798
-10.843798
-10.843799
-10.843863
-10.844621
-10.847392
-10.851011
-10.852143
-10.852162
-10.852183
-10.8522005
-10.85222
-10.852235
-10.852253
-10.852267
-10.852283
-10.852293
-10.852305
-10.852318
-10.852327
-10.852339
-10.852346
-10.852358
-10.8523655
-10.852372
-10.85238
-10.852386
-10.852394
-10.852401
-10.850898
-10.846489
-10.844117
-10.8438
-10.843798
-10.8438
-10.844102
-10.854172
-10.93691
-11.274324
-12.106099
-13.502077
-15.359888
-17.699032
-20.678024
-23.703253
-25.218151
-25.543228
-25.567541
-25.567541
-25.567541
-25.567541
-25.567541
-25.567541
-25.567541
-25.302551
-19.796453
-12.215892
-13.772028
-11.972091
-11.047841
-10.859641
-10.851719
-10.851718
-10.851718
-10.851718
-10.851718
-10.851718
-10.851718
-10.851718
-10.851718
-10.851719
-10.851721
-10.851722
-10.851722
-10.851723
-10.851723
-10.851723
-10.851724
-10.851725
-10.851725
-10.851726
-10.851726
-10.851726
-10.851727
-10.851727
-10.851727
-10.851727
-10.851727
-10.851727
-10.851727
-10.851727
-10.851727
-10.851727
-10.851727
-10.851727
-10.851727
-10.851727
-10.851725
-10.85172
-10.851718
-10.851718
-10.85172
-10.854032
-10.911264
-11.236452
-12.090198
-13.499075
-15.359747
-17.699415
-20.67833
-23.703388
-25.218176
-25.54323
-25.567541
-25.567541
-25.567541
-25.567541
-25.567541
-25.567541
-25.567541
-25.567541
-25.302551
-19.796453
-12.319541
-13.921141
-12.144591
-11.233128
-11.047832
-11.04002
-11.04002
-11.04002
-11.04002
-11.04002
-11.04002
-11.04002
-11.04002
-11.04002
-11.04002
-11.04002
-11.04002
-11.04002
-11.04002
-11.04002
-11.04002
-11.04002
-11.04002
-11.04002
-11.04002
-11.04002
-11.04002
-11.04002
-11.04002
-11.04002
-11.04002
-11.04002
-11.04002
-11.04002
-11.04002
-11.04002
-11.04002
-11.04002
-11.04002
-11.04002
-11.04002
-11.04002
-11.04002
-11.04002
-11.04002
-11.040029
-11.046125
-11.186963
-11.8798895
-13.343235
-15.295292
-17.686598
-20.67814
-23.703514
-25.218204
-25.543232
-25.567541
-25.567541
-25.567541
-25.567541
-25.567541
-25.567541
-25.567541
-25.567541
-25.567541
-25.302551
-19.796453
-12.883228
-14.733457
-13.079571
-12.231415
-12.060026
-12.052741
-12.052742
-12.052742
-12.052742
-12.052742
-12.052741
-12.052741
-12.052741
-12.052741
-12.052741
-12.052741
-12.052742
-12.052741
-12.052741
-12.052741
-12.052741
-12.052741
-12.052741
-12.052741
-12.052742
-12.052741
-12.052742
-12.052741
-12.052741
-12.052741
-12.052741
-12.052741
-12.052741
-12.052741
-12.052741
-12.052741
-12.052741
-12.052742
-12.052741
-12.052741
-12.052741
-12.052741
-12.052742
-12.052742
-12.052741
-12.052751
-12.060423
-12.234301
-13.075086
-14.859425
-17.400936
-20.607306
-23.70044
-25.21823
-25.543236
-25.567541
-25.567541
-25.567541
-25.567541
-25.567541
-25.567541
-25.567541
-25.567541
-25.567541
-25.567541
-25.302551
-19.796453
-14.691156
-17.488237
-16.34624
-15.731895
-15.608843
-15.603626
-15.603626
-15.603626
-15.603624
-15.603624
-15.603626
-15.603626
-15.603626
-15.603626
-15.603626
-15.603626
-15.603626
-15.603626
-15.603626
-15.603626
-15.603626
-15.603626
-15.603626
-15.603626
-15.603626
-15.603626
-15.603626
-15.603626
-15.603626
-15.603626
-15.603626
-15.603626
-15.603626
-15.603626
-15.603626
-15.603626
-15.603626
-15.603626
-15.603626
-15.603624
-15.603626
-15.603626
-15.603626
-15.603626
-15.603626
-15.603634
-15.609383
-15.740644
-16.38093
-17.798143
-20.192461
-23.328466
-24.947678
-25.278248
-25.302551
-25.302551
-25.302551
-25.302551
-25.302551
-25.302551
-25.302551
-25.302551
-25.302551
-25.302551
-25.302551
-25.037561
-19.587626
-13.9822235
-17.576788
-17.406458
-17.24168
-17.208906
-17.207561
-17.207561
-17.207561
-17.207561
-17.207561
-17.207561
-17.207561
-17.207561
-17.207563
-17.207561
-17.207561
-17.207561
-17.207561
-17.207561
-17.207561
-17.207561
-17.207561
-17.207561
-17.207563
-17.207561
-17.207561
-17.207561
-17.207563
-17.207561
-17.207561
-17.207561
-17.207561
-17.207563
-17.207561
-17.207561
-17.207561
-17.207561
-17.207563
-17.207561
-17.207561
-17.207563
-17.207561
-17.207561
-17.207561
-17.207561
-17.207563
-17.209042
-17.244112
-17.416418
-17.804438
-18.50691
-19.438833
-19.770275
-19.796453
-19.796453
-19.796453
-19.796453
-19.796453
-19.796453
-19.796453
-19.796453
-19.796453
-19.796453
-19.796453
-19.796453
-19.587626
-15.280851
-13.848069
-16.116522
-14.667437
-13.921141
-13.772019
-13.765679
-13.765678
-13.765678
-13.765678
-13.765679
-13.765678
-13.765678
-13.765678
-13.765678
-13.765679
-13.765679
-13.765678
-13.765678
-13.765678
-13.765678
-13.765679
-13.765678
-13.765679
-13.765678
-13.765678
-13.765679
-13.765678
-13.765678
-13.765678
-13.765678
-13.765678
-13.765678
-13.765678
-13.765679
-13.765678
-13.765678
-13.765678
-13.765679
-13.765678
-13.765678
-13.765678
-13.765679
-13.765679
-13.765678
-13.765678
-13.765678
-13.765679
-13.765679
-13.765678
-13.765679
-13.765679
-13.765679
-13.765678
-13.765678
-13.765678
-13.765679
-13.765679
-13.765679
-13.765679
-13.765679
-13.765679
-13.765679
-13.772018
-13.921141
-14.733457
-17.48824
-17.576788
-16.116522
-18.292822
-16.133617
-15.019968
-14.793451
-14.783757
-14.783758
-14.783758
-14.783757
-14.783758
-14.783757
-14.783758
-14.783758
-14.783757
-14.783757
-14.783758
-14.783758
-14.783757
-14.783757
-14.783758
-14.783757
-14.783757
-14.783758
-14.783757
-14.783758
-14.783757
-14.783758
-14.783758
-14.783757
-14.783757
-14.783758
-14.783757
-14.783757
-14.783757
-14.783757
-14.783758
-14.783757
-14.783757
-14.783758
-14.783758
-14.783758
-14.783757
-14.783757
-14.783758
-14.783758
-14.783757
-14.783758
-14.783758
-14.783758
-14.783758
-14.783757
-14.783758
-14.783758
-14.783757
-14.783757
-14.783758
-14.783757
-14.783757
-14.783758
-14.783758
-14.783757
-14.783757
-14.793451
-15.019968
-16.238018
-20.447027
-21.972254
-14.667437
-16.13362
-13.539553
-12.177757
-11.893261
-11.881128
-11.881127
-11.881127
-11.881127
-11.881128
-11.881127
-11.881127
-11.881127
-11.881127
-11.881126
-11.881128
-11.881127
-11.881127
-11.881128
-11.881128
-11.881128
-11.881127
-11.881127
-11.881127
-11.881127
-11.881126
-11.881128
-11.881127
-11.881126
-11.881127
-11.881127
-11.881127
-11.881127
-11.881128
-11.881127
-11.881126
-11.881128
-11.881127
-11.881127
-11.881126
-11.881127
-11.881127
-11.881126
-11.881128
-11.881127
-11.881127
-11.881127
-11.881126
-11.881127
-11.881127
-11.881126
-11.881127
-11.881127
-11.881127
-11.881127
-11.881127
-11.881127
-11.881126
-11.881128
-11.881127
-11.881126
-11.881127
-11.89326
-12.177758
-13.664232
-18.71606
-21.687252
-13.921141
-15.019967
-12.177757
-10.65074
-10.324503
-10.310667
-10.310666
-10.310666
-10.310667
-10.310667
-10.310667
-10.310666
-10.310667
-10.310668
-10.310666
-10.310667
-10.310667
-10.310668
-10.310666
-10.310667
-10.310667
-10.310665
-10.310668
-10.310666
-10.310666
-10.310666
-10.310667
-10.310666
-10.310667
-10.310667
-10.310665
-10.310667
-10.310672
-10.310682
-10.310692
-10.310691
-10.31069
-10.310689
-10.310691
-10.310691
-10.31069
-10.31069
-10.310689
-10.310699
-10.310851
-10.311391
-10.311954
-10.311935
-10.311794
-10.311735
-10.311585
-10.311447
-10.311361
-10.311244
-10.311137
-10.31105
-10.310925
-10.310779
-10.310717
-10.310718
-10.310685
-10.310666
-10.324502
-10.650739
-12.311201
-17.787197
-21.443241
-13.772028
-14.793468
-11.89328
-10.325939
-9.992881
-9.980612
-9.980642
-9.978711
-9.97459
-9.97314
-9.973139
-9.973139
-9.973139
-9.973138
-9.973139
-9.973141
-9.973146
-9.973165
-9.973174
-9.973171
-9.973172
-9.973169
-9.97317
-9.973158
-9.9731455
-9.973138
-9.973139
-9.973139
-9.973139
-9.97314
-9.973139
-9.973144
-9.973877
-9.978568
-9.98664
-9.98934
-9.989338
-9.989331
-9.989327
-9.989324
-9.989317
-9.989314
-9.989321
-9.989851
-9.994826
-10.009888
-10.024748
-10.024632
-10.021343
-10.0196905
-10.01585
-10.012306
-10.0099325
-10.00675
-10.003829
-10.001302
-9.997466
-9.990719
-9.981495
-9.975976
-9.97367
-9.973158
-9.987387
-10.324502
-12.028292
-17.597425
-21.393993
-13.772673
-14.79445
-11.896002
-10.360404
-10.118144
-10.15328
-10.151748
-10.097184
-9.997112
-9.961199
-9.958975
-9.958942
-9.958903
-9.958891
-9.95956
-9.963445
-9.970505
-9.974745
-9.975526
-9.975481
-9.975427
-9.97538
-9.974772
-9.971138
-9.964058
-9.959723
-9.958892
-9.958891
-9.958891
-9.958892
-9.958891
-9.959469
-9.974963
-10.06568
-10.233205
-10.302698
-10.324368
-10.334321
-10.335998
-10.335952
-10.335908
-10.335869
-10.336009
-10.341162
-10.37854
-10.477342
-10.567309
-10.570452
-10.553433
-10.544088
-10.522276
-10.501845
-10.48756
-10.467971
-10.449434
-10.429031
-10.384885
-10.284893
-10.110992
-9.992775
-9.961661
-9.958941
-9.973145
-10.310683
-12.016176
-17.589333
-21.391972
-13.932176
-15.036517
-12.204746
-10.819791
-10.9219055
-11.192624
-11.145059
-10.727111
-10.20658
-10.004121
-9.977669
-9.971773
-9.963442
-9.960114
-9.976193
-10.059577
-10.206239
-10.295282
-10.328059
-10.338481
-10.33978
-10.337681
-10.316072
-10.226299
-10.073845
-9.980041
-9.959717
-9.958892
-9.958896
-9.958908
-9.958908
-9.960438
-10.00203
-10.259182
-10.799575
-11.238943
-11.650237
-11.880229
-11.948375
-11.981827
-12.0149765
-12.054589
-12.094891
-12.123144
-12.230761
-12.494363
-12.7246475
-12.742133
-12.70487
-12.6777525
-12.605281
-12.523048
-12.451616
-12.367811
-12.283765
-12.136888
-11.7375345
-11.093901
-10.41104
-10.042845
-9.963125
-9.960651
-9.980628
-10.323891
-12.02944
-17.598253
-21.394201
-14.777095
-16.302422
-13.752071
-12.620632
-13.080521
-13.72681
-13.445129
-12.172982
-10.996278
-10.4703045
-10.346291
-10.240857
-10.070232
-9.98027
-10.007787
-10.24948
-10.737844
-11.219494
-11.649581
-11.875882
-11.932712
-11.911359
-11.677355
-11.0632305
-10.377765
-10.03098
-9.961702
-9.959471
-9.963305
-9.9700165
-9.969909
-9.963727
-9.97657
-10.106745
-10.550581
-11.475099
-12.830832
-13.885069
-14.595023
-15.289246
-16.015291
-16.864195
-17.721924
-18.028193
-18.171227
-18.459301
-18.714073
-18.740196
-18.693165
-18.547613
-18.047346
-17.297321
-16.496422
-15.718733
-14.963766
-14.110934
-12.733797
-11.185725
-10.265068
-9.995146
-9.966593
-10.012687
-10.160968
-10.621498
-12.326087
-17.80086
-21.446863
-17.805706
-20.854582
-19.128279
-18.153183
-17.89586
-17.821993
-16.74042
-14.77037
-13.149868
-12.29444
-11.974962
-11.470029
-10.6442585
-10.132886
-10.001691
-10.112184
-10.549295
-11.456128
-12.697962
-13.55058
-14.003205
-14.0872135
-13.175044
-11.5642185
-10.424366
-10.024451
-9.962413
-9.979137
-10.07069
-10.216505
-10.214135
-10.067429
-9.979255
-9.982025
-10.128511
-10.695687
-11.96528
-13.76211
-15.862619
-18.263554
-20.840597
-23.784252
-26.855396
-28.391333
-28.746458
-28.855982
-28.932598
-28.931898
-28.787132
-28.06079
-26.2303
-23.65753
-20.945555
-18.36346
-15.938789
-13.777679
-11.861417
-10.556937
-10.052686
-9.974389
-10.054265
-10.393056
-11.095288
-12.013119
-13.715397
-18.771654
-21.702318
-23.299294
-29.203388
-28.949934
-28.125065
-26.170588
-24.150913
-22.162243
-20.035492
-17.720207
-16.166515
-15.225822
-13.880772
-12.066719
-10.732249
-10.155122
-10.018578
-10.143632
-10.6409235
-11.537962
-12.58567
-13.750447
-14.278734
-12.791964
-10.987684
-10.163565
-9.979853
-9.982078
-10.133944
-10.649883
-11.364707
-11.353205
-10.633956
-10.127322
-9.9814625
-9.982182
-10.1343565
-10.721512
-12.087878
-14.256219
-16.978043
-20.071579
-23.464437
-27.225681
-30.54495
-32.088955
-32.412483
-32.430466
-32.297142
-31.572777
-29.657303
-26.688715
-23.327564
-20.035688
-16.948221
-14.226707
-12.0545435
-10.685688
-10.110889
-9.984418
-10.0698595
-10.516531
-11.604167
-13.212803
-14.828781
-16.595222
-20.89526
-22.273869
-25.208048
-32.121082
-32.41625
-32.17554
-31.407303
-30.585062
-29.84836
-28.456532
-25.198908
-22.013817
-19.496286
-16.908504
-14.293621
-12.16588
-10.919331
-10.333168
-10.097647
-10.099375
-10.332443
-10.9057455
-11.910231
-12.490741
-11.438598
-10.345164
-10.001728
-9.980957
-10.134368
-10.731341
-12.076485
-13.591068
-13.566743
-12.041694
-10.711826
-10.130022
-9.981485
-9.982156
-10.134193
-10.724977
-12.108834
-14.307081
-17.06207
-20.195307
-23.627998
-27.401314
-30.720882
-32.254337
-32.440136
-31.739704
-29.82429
-26.85175
-23.471634
-20.14827
-17.027205
-14.27739
-12.086579
-10.7109
-10.127284
-9.985632
-10.052854
-10.506017
-11.726852
-13.726229
-16.139322
-18.557692
-20.929073
-24.617756
-23.335276
-25.302551
-32.27033
-32.60659
-32.59564
-32.556953
-32.51316
-32.45993
-32.089066
-30.40586
-27.09606
-23.446266
-20.11523
-17.078367
-14.614738
-12.890062
-11.617437
-10.656241
-10.155217
-10.026619
-10.155026
-10.544254
-10.779862
-10.380685
-10.041381
-9.969078
-10.077789
-10.667293
-12.100227
-14.2905
-16.313507
-16.281467
-14.244415
-12.086839
-10.713042
-10.130169
-9.981505
-9.98213
-10.134047
-10.724552
-12.10809
-14.306098
-17.060957
-20.194147
-23.626896
-27.39592
-30.601854
-31.43296
-29.812044
-26.851114
-23.470985
-20.147644
-17.02666
-14.276996
-12.086875
-10.712898
-10.13
-9.983799
-10.027582
-10.419821
-11.599293
-13.695405
-16.406725
-19.46212
-22.787249
-26.435265
-29.599228
-24.769453
-25.302551
-32.27033
-32.60659
-32.60659
-32.60659
-32.60659
-32.600307
-32.542416
-32.02127
-29.908365
-26.235353
-22.795994
-19.876423
-17.484537
-15.528429
-13.721054
-12.000931
-10.842017
-10.256865
-10.033956
-10.048502
-10.083007
-10.011625
-9.967386
-9.99621
-10.350259
-11.682329
-14.087163
-16.981379
-19.42545
-19.383617
-16.994467
-14.27774
-12.087643
-10.713448
-10.130298
-9.981524
-9.982108
-10.133905
-10.724164
-12.107408
-14.305196
-17.059935
-20.193075
-23.61331
-27.085241
-28.760603
-26.803501
-23.470333
-20.14703
-17.026096
-14.2765255
-12.086546
-10.712743
-10.130029
-9.982823
-10.008734
-10.326225
-11.385364
-13.4121275
-16.174608
-19.427917
-23.124647
-27.182798
-30.598396
-31.869408
-25.268003
-25.302551
-32.27033
-32.60659
-32.60659
-32.598892
-32.565987
-32.404144
-31.881569
-30.80472
-28.463205
-25.552
-22.938393
-20.585663
-18.439528
-16.486492
-14.66301
-12.973191
-11.620113
-10.650697
-10.099068
-9.968048
-9.963577
-9.96205
-9.983104
-10.1601515
-10.954133
-12.983583
-16.15005
-20.01932
-23.285612
-22.910664
-20.130888
-17.028383
-14.278778
-12.088359
-10.713818
-10.130418
-9.981544
-9.982088
-10.133784
-10.723812
-12.10678
-14.304374
-17.059002
-20.187197
-23.444324
-25.35388
-23.402687
-20.146412
-17.025541
-14.276058
-12.086204
-10.712563
-10.129963
-9.982122
-9.997403
-10.252738
-11.16296
-13.049706
-15.764849
-19.032701